/*---------------------------------------------------------------------------*\
| =========                 |                                                 |
| \\      /  F ield         | OpenFOAM: The Open Source CFD Toolbox           |
|  \\    /   O peration     | Version:  1.0                                   |
|   \\  /    A nd           | Web:      http://www.openfoam.org               |
|    \\/     M anipulation  |                                                 |
\*---------------------------------------------------------------------------*/

FoamFile
{
    version         2.0;
    format          ascii;

    root            "";
    case            "";
    instance        "";
    local           "";

    class           volScalarField;
    object          T;
}

// * * * * * * * * * * * * * * * * * * * * * * * * * * * * * * * * * * * * * //

dimensions      [0 0 0 1 0 0 0];

internalField   uniform 0;

boundaryField
{
    fixedWalls
    {
        type            inletOutlet;
        inletValue      uniform 0;
        value           uniform 0;
    }

    inlet
    {
        type            fixedValue;
        value        nonuniform List<scalar>
20(0 0 0 0 0 1 1 1 1 1 1 1 1 1 1 0 0 0 0 0);
    }

    outlet
    {
        type            zeroGradient;
    }

    defaultFaces
    {
        type            empty;
    }
}


// ************************************************************************* //
